    1C
    1UUSER                                                              
    1UDATE              22.april.2026                                   
    1UTIME              09:29:32                                        
    1UHOST                                                              
    1UPGM               CalculiX                                        
    1UVERSION           Version 2.22                             
    1UCOMPILETIME       Mon Aug  5 19:15:25 CEST 2024                    
    1UDIR                                                               
    1UDBN                                                               
    1UMAT    1SOLIDMATERIAL                                             
    2C                          7822                                     1
 -1         1 5.00000E+00-1.22465E-15 0.00000E+00
 -1         2 5.00000E+00-1.22465E-15 2.00000E+02
 -1         3 5.00000E+00-1.22465E-15 2.59740E+00
 -1         4 5.00000E+00-1.22465E-15 5.19481E+00
 -1         5 5.00000E+00-1.22465E-15 7.79221E+00
 -1         6 5.00000E+00-1.22465E-15 1.03896E+01
 -1         7 5.00000E+00-1.22465E-15 1.29870E+01
 -1         8 5.00000E+00-1.22465E-15 1.55844E+01
 -1         9 5.00000E+00-1.22465E-15 1.81818E+01
 -1        10 5.00000E+00-1.22465E-15 2.07792E+01
 -1        11 5.00000E+00-1.22465E-15 2.33766E+01
 -1        12 5.00000E+00-1.22465E-15 2.59740E+01
 -1        13 5.00000E+00-1.22465E-15 2.85714E+01
 -1        14 5.00000E+00-1.22465E-15 3.11688E+01
 -1        15 5.00000E+00-1.22465E-15 3.37662E+01
 -1        16 5.00000E+00-1.22465E-15 3.63636E+01
 -1        17 5.00000E+00-1.22465E-15 3.89610E+01
 -1        18 5.00000E+00-1.22465E-15 4.15584E+01
 -1        19 5.00000E+00-1.22465E-15 4.41558E+01
 -1        20 5.00000E+00-1.22465E-15 4.67532E+01
 -1        21 5.00000E+00-1.22465E-15 4.93507E+01
 -1        22 5.00000E+00-1.22465E-15 5.19481E+01
 -1        23 5.00000E+00-1.22465E-15 5.45455E+01
 -1        24 5.00000E+00-1.22465E-15 5.71429E+01
 -1        25 5.00000E+00-1.22465E-15 5.97403E+01
 -1        26 5.00000E+00-1.22465E-15 6.23377E+01
 -1        27 5.00000E+00-1.22465E-15 6.49351E+01
 -1        28 5.00000E+00-1.22465E-15 6.75325E+01
 -1        29 5.00000E+00-1.22465E-15 7.01299E+01
 -1        30 5.00000E+00-1.22465E-15 7.27273E+01
 -1        31 5.00000E+00-1.22465E-15 7.53247E+01
 -1        32 5.00000E+00-1.22465E-15 7.79221E+01
 -1        33 5.00000E+00-1.22465E-15 8.05195E+01
 -1        34 5.00000E+00-1.22465E-15 8.31169E+01
 -1        35 5.00000E+00-1.22465E-15 8.57143E+01
 -1        36 5.00000E+00-1.22465E-15 8.83117E+01
 -1        37 5.00000E+00-1.22465E-15 9.09091E+01
 -1        38 5.00000E+00-1.22465E-15 9.35065E+01
 -1        39 5.00000E+00-1.22465E-15 9.61039E+01
 -1        40 5.00000E+00-1.22465E-15 9.87013E+01
 -1        41 5.00000E+00-1.22465E-15 1.01299E+02
 -1        42 5.00000E+00-1.22465E-15 1.03896E+02
 -1        43 5.00000E+00-1.22465E-15 1.06494E+02
 -1        44 5.00000E+00-1.22465E-15 1.09091E+02
 -1        45 5.00000E+00-1.22465E-15 1.11688E+02
 -1        46 5.00000E+00-1.22465E-15 1.14286E+02
 -1        47 5.00000E+00-1.22465E-15 1.16883E+02
 -1        48 5.00000E+00-1.22465E-15 1.19481E+02
 -1        49 5.00000E+00-1.22465E-15 1.22078E+02
 -1        50 5.00000E+00-1.22465E-15 1.24675E+02
 -1        51 5.00000E+00-1.22465E-15 1.27273E+02
 -1        52 5.00000E+00-1.22465E-15 1.29870E+02
 -1        53 5.00000E+00-1.22465E-15 1.32468E+02
 -1        54 5.00000E+00-1.22465E-15 1.35065E+02
 -1        55 5.00000E+00-1.22465E-15 1.37662E+02
 -1        56 5.00000E+00-1.22465E-15 1.40260E+02
 -1        57 5.00000E+00-1.22465E-15 1.42857E+02
 -1        58 5.00000E+00-1.22465E-15 1.45455E+02
 -1        59 5.00000E+00-1.22465E-15 1.48052E+02
 -1        60 5.00000E+00-1.22465E-15 1.50649E+02
 -1        61 5.00000E+00-1.22465E-15 1.53247E+02
 -1        62 5.00000E+00-1.22465E-15 1.55844E+02
 -1        63 5.00000E+00-1.22465E-15 1.58442E+02
 -1        64 5.00000E+00-1.22465E-15 1.61039E+02
 -1        65 5.00000E+00-1.22465E-15 1.63636E+02
 -1        66 5.00000E+00-1.22465E-15 1.66234E+02
 -1        67 5.00000E+00-1.22465E-15 1.68831E+02
 -1        68 5.00000E+00-1.22465E-15 1.71429E+02
 -1        69 5.00000E+00-1.22465E-15 1.74026E+02
 -1        70 5.00000E+00-1.22465E-15 1.76623E+02
 -1        71 5.00000E+00-1.22465E-15 1.79221E+02
 -1        72 5.00000E+00-1.22465E-15 1.81818E+02
 -1        73 5.00000E+00-1.22465E-15 1.84416E+02
 -1        74 5.00000E+00-1.22465E-15 1.87013E+02
 -1        75 5.00000E+00-1.22465E-15 1.89610E+02
 -1        76 5.00000E+00-1.22465E-15 1.92208E+02
 -1        77 5.00000E+00-1.22465E-15 1.94805E+02
 -1        78 5.00000E+00-1.22465E-15 1.97403E+02
 -1        79 5.00000E+00-1.22465E-15 1.29870E+00
 -1        80 5.00000E+00-1.22465E-15 3.89610E+00
 -1        81 5.00000E+00-1.22465E-15 6.49351E+00
 -1        82 5.00000E+00-1.22465E-15 9.09091E+00
 -1        83 5.00000E+00-1.22465E-15 1.16883E+01
 -1        84 5.00000E+00-1.22465E-15 1.42857E+01
 -1        85 5.00000E+00-1.22465E-15 1.68831E+01
 -1        86 5.00000E+00-1.22465E-15 1.94805E+01
 -1        87 5.00000E+00-1.22465E-15 2.20779E+01
 -1        88 5.00000E+00-1.22465E-15 2.46753E+01
 -1        89 5.00000E+00-1.22465E-15 2.72727E+01
 -1        90 5.00000E+00-1.22465E-15 2.98701E+01
 -1        91 5.00000E+00-1.22465E-15 3.24675E+01
 -1        92 5.00000E+00-1.22465E-15 3.50649E+01
 -1        93 5.00000E+00-1.22465E-15 3.76623E+01
 -1        94 5.00000E+00-1.22465E-15 4.02597E+01
 -1        95 5.00000E+00-1.22465E-15 4.28571E+01
 -1        96 5.00000E+00-1.22465E-15 4.54545E+01
 -1        97 5.00000E+00-1.22465E-15 4.80519E+01
 -1        98 5.00000E+00-1.22465E-15 5.06493E+01
 -1        99 5.00000E+00-1.22465E-15 5.32468E+01
 -1       100 5.00000E+00-1.22465E-15 5.58442E+01
 -1       101 5.00000E+00-1.22465E-15 5.84416E+01
 -1       102 5.00000E+00-1.22465E-15 6.10390E+01
 -1       103 5.00000E+00-1.22465E-15 6.36364E+01
 -1       104 5.00000E+00-1.22465E-15 6.62338E+01
 -1       105 5.00000E+00-1.22465E-15 6.88312E+01
 -1       106 5.00000E+00-1.22465E-15 7.14286E+01
 -1       107 5.00000E+00-1.22465E-15 7.40260E+01
 -1       108 5.00000E+00-1.22465E-15 7.66234E+01
 -1       109 5.00000E+00-1.22465E-15 7.92208E+01
 -1       110 5.00000E+00-1.22465E-15 8.18182E+01
 -1       111 5.00000E+00-1.22465E-15 8.44156E+01
 -1       112 5.00000E+00-1.22465E-15 8.70130E+01
 -1       113 5.00000E+00-1.22465E-15 8.96104E+01
 -1       114 5.00000E+00-1.22465E-15 9.22078E+01
 -1       115 5.00000E+00-1.22465E-15 9.48052E+01
 -1       116 5.00000E+00-1.22465E-15 9.74026E+01
 -1       117 5.00000E+00-1.22465E-15 1.00000E+02
 -1       118 5.00000E+00-1.22465E-15 1.02597E+02
 -1       119 5.00000E+00-1.22465E-15 1.05195E+02
 -1       120 5.00000E+00-1.22465E-15 1.07792E+02
 -1       121 5.00000E+00-1.22465E-15 1.10390E+02
 -1       122 5.00000E+00-1.22465E-15 1.12987E+02
 -1       123 5.00000E+00-1.22465E-15 1.15584E+02
 -1       124 5.00000E+00-1.22465E-15 1.18182E+02
 -1       125 5.00000E+00-1.22465E-15 1.20779E+02
 -1       126 5.00000E+00-1.22465E-15 1.23377E+02
 -1       127 5.00000E+00-1.22465E-15 1.25974E+02
 -1       128 5.00000E+00-1.22465E-15 1.28571E+02
 -1       129 5.00000E+00-1.22465E-15 1.31169E+02
 -1       130 5.00000E+00-1.22465E-15 1.33766E+02
 -1       131 5.00000E+00-1.22465E-15 1.36364E+02
 -1       132 5.00000E+00-1.22465E-15 1.38961E+02
 -1       133 5.00000E+00-1.22465E-15 1.41558E+02
 -1       134 5.00000E+00-1.22465E-15 1.44156E+02
 -1       135 5.00000E+00-1.22465E-15 1.46753E+02
 -1       136 5.00000E+00-1.22465E-15 1.49351E+02
 -1       137 5.00000E+00-1.22465E-15 1.51948E+02
 -1       138 5.00000E+00-1.22465E-15 1.54545E+02
 -1       139 5.00000E+00-1.22465E-15 1.57143E+02
 -1       140 5.00000E+00-1.22465E-15 1.59740E+02
 -1       141 5.00000E+00-1.22465E-15 1.62338E+02
 -1       142 5.00000E+00-1.22465E-15 1.64935E+02
 -1       143 5.00000E+00-1.22465E-15 1.67532E+02
 -1       144 5.00000E+00-1.22465E-15 1.70130E+02
 -1       145 5.00000E+00-1.22465E-15 1.72727E+02
 -1       146 5.00000E+00-1.22465E-15 1.75325E+02
 -1       147 5.00000E+00-1.22465E-15 1.77922E+02
 -1       148 5.00000E+00-1.22465E-15 1.80519E+02
 -1       149 5.00000E+00-1.22465E-15 1.83117E+02
 -1       150 5.00000E+00-1.22465E-15 1.85714E+02
 -1       151 5.00000E+00-1.22465E-15 1.88312E+02
 -1       152 5.00000E+00-1.22465E-15 1.90909E+02
 -1       153 5.00000E+00-1.22465E-15 1.93507E+02
 -1       154 5.00000E+00-1.22465E-15 1.96104E+02
 -1       155 5.00000E+00-1.22465E-15 1.98701E+02
 -1       156 4.33013E+00 2.50000E+00 0.00000E+00
 -1       157 2.50000E+00 4.33013E+00 0.00000E+00
 -1       158-2.52290E-14 5.00000E+00 0.00000E+00
 -1       159-2.50000E+00 4.33013E+00 0.00000E+00
 -1       160-4.33013E+00 2.50000E+00 0.00000E+00
 -1       161-5.00000E+00-2.82535E-14 0.00000E+00
 -1       162-4.33013E+00-2.50000E+00 0.00000E+00
 -1       163-2.50000E+00-4.33013E+00 0.00000E+00
 -1       164 2.57269E-14-5.00000E+00 0.00000E+00
 -1       165 2.50000E+00-4.33013E+00 0.00000E+00
 -1       166 4.33013E+00-2.50000E+00 0.00000E+00
 -1       167 4.82963E+00 1.29410E+00 0.00000E+00
 -1       168 3.53553E+00 3.53553E+00 0.00000E+00
 -1       169 1.29410E+00 4.82963E+00 0.00000E+00
 -1       170-1.29410E+00 4.82963E+00 0.00000E+00
 -1       171-3.53553E+00 3.53553E+00 0.00000E+00
 -1       172-4.82963E+00 1.29410E+00 0.00000E+00
 -1       173-4.82963E+00-1.29410E+00 0.00000E+00
 -1       174-3.53553E+00-3.53553E+00 0.00000E+00
 -1       175-1.29410E+00-4.82963E+00 0.00000E+00
 -1       176 1.29410E+00-4.82963E+00 0.00000E+00
 -1       177 3.53553E+00-3.53553E+00 0.00000E+00
 -1       178 4.82963E+00-1.29410E+00 0.00000E+00
 -1       179 4.33013E+00 2.50000E+00 2.00000E+02
 -1       180 2.50000E+00 4.33013E+00 2.00000E+02
 -1       181-2.52290E-14 5.00000E+00 2.00000E+02
 -1       182-2.50000E+00 4.33013E+00 2.00000E+02
 -1       183-4.33013E+00 2.50000E+00 2.00000E+02
 -1       184-5.00000E+00-2.82535E-14 2.00000E+02
 -1       185-4.33013E+00-2.50000E+00 2.00000E+02
 -1       186-2.50000E+00-4.33013E+00 2.00000E+02
 -1       187 2.57269E-14-5.00000E+00 2.00000E+02
 -1       188 2.50000E+00-4.33013E+00 2.00000E+02
 -1       189 4.33013E+00-2.50000E+00 2.00000E+02
 -1       190 4.82963E+00 1.29410E+00 2.00000E+02
 -1       191 3.53553E+00 3.53553E+00 2.00000E+02
 -1       192 1.29410E+00 4.82963E+00 2.00000E+02
 -1       193-1.29410E+00 4.82963E+00 2.00000E+02
 -1       194-3.53553E+00 3.53553E+00 2.00000E+02
 -1       195-4.82963E+00 1.29410E+00 2.00000E+02
 -1       196-4.82963E+00-1.29410E+00 2.00000E+02
 -1       197-3.53553E+00-3.53553E+00 2.00000E+02
 -1       198-1.29410E+00-4.82963E+00 2.00000E+02
 -1       199 1.29410E+00-4.82963E+00 2.00000E+02
 -1       200 3.53553E+00-3.53553E+00 2.00000E+02
 -1       201 4.82963E+00-1.29410E+00 2.00000E+02
 -1       202-2.80268E+00 4.14065E+00 1.91806E+02
 -1       203-1.28227E+00 4.83278E+00 1.90382E+02
 -1       204-3.24306E+00 3.80560E+00 1.89537E+02
 -1       205-9.43920E-01 4.91009E+00 1.92447E+02
 -1       206 4.71518E+00-1.66346E+00 1.96602E+02
 -1       207 4.73507E+00-1.60598E+00 1.98413E+02
 -1       208-4.81651E+00 1.34210E+00 1.98137E+02
 -1       209-4.09168E+00 2.87370E+00 1.97685E+02
 -1       210-4.83901E+00 1.25855E+00 1.95614E+02
 -1       211-3.97297E+00 3.03570E+00 1.95702E+02
 -1       212-4.18290E+00 2.73922E+00 1.77524E+02
 -1       213-3.92756E+00 3.09423E+00 1.80450E+02
 -1       214-2.15362E+00 4.51242E+00 1.79350E+02
 -1       215 2.76147E+00 4.16825E+00 1.20908E+01
 -1       216 4.23670E-01 4.98202E+00 1.18685E+01
 -1       217 1.76734E+00 4.67723E+00 1.39671E+01
 -1       218-2.63805E+00 4.24744E+00 1.96830E+02
 -1       219-2.78451E+00 4.15289E+00 1.94242E+02
 -1       220 4.12867E+00-2.82029E+00 1.47885E+01
 -1       221 4.03294E+00-2.95556E+00 1.26255E+01
 -1       222-2.43597E+00-4.36647E+00 1.95188E+02
 -1       223-3.29208E+00-3.76327E+00 1.97634E+02
 -1       224-3.94094E+00-3.07717E+00 1.95607E+02
 -1       225-1.80027E+00-4.66466E+00 1.92321E+02
 -1       226-1.29865E-01-4.99831E+00 1.94766E+02
 -1       227 1.11717E+00-4.87360E+00 1.91960E+02
 -1       228-1.27032E+00-4.83594E+00 2.45301E+00
 -1       229 1.22531E+00-4.84754E+00 2.26194E+00
 -1       230 3.05377E-01-4.99067E+00 4.25128E+00
 -1       231-2.01566E+00 4.57571E+00 1.77106E+02
 -1       232-4.55877E-01 4.97917E+00 1.78408E+02
 -1       233-4.37542E+00-2.41986E+00 1.69590E+02
 -1       234-4.43815E+00-2.30279E+00 1.72194E+02
 -1       235-4.98690E+00-3.61657E-01 1.70947E+02
 -1       236-2.73659E+00 4.18463E+00 5.84446E+00
 -1       237-2.58013E+00 4.28286E+00 3.29195E+00
 -1       238-3.84898E+00 3.19144E+00 4.59392E+00
 -1       239 3.50328E+00-3.56749E+00 1.88458E+02
 -1       240 1.69404E+00-4.70428E+00 1.89591E+02
 -1       241 1.46198E+00-4.78149E+00 1.87029E+02
 -1       242-1.40508E+00-4.79852E+00 1.97516E+02
 -1       243-4.97479E+00 5.01496E-01 8.14292E+01
 -1       244-4.99614E+00-1.96324E-01 8.37107E+01
 -1       245-4.25075E+00 2.63271E+00 8.19997E+01
 -1       246 2.29597E+00-4.44168E+00 4.47149E+00
 -1       247 4.40678E+00-2.36226E+00 1.08119E+01
 -1       248-4.98315E+00-4.10197E-01 2.18610E+01
 -1       249-4.88194E+00 1.08012E+00 1.93114E+01
 -1       250-4.77899E+00-1.47012E+00 2.00632E+01
 -1       251-3.97588E+00 3.03190E+00 2.45606E+00
 -1       252 4.63692E+00-1.87056E+00 6.61269E+00
 -1       253 4.54260E+00-2.08921E+00 8.68938E+00
 -1       254 3.60338E+00 3.46636E+00 2.54228E+00
 -1       255 4.73295E+00 1.61221E+00 2.53941E+00
 -1       256 4.75190E+00 1.55547E+00 1.97511E+02
 -1       257 3.66762E+00 3.39832E+00 1.97704E+02
 -1       258 3.65496E+00-3.41192E+00 1.97548E+02
 -1       259 4.71128E+00-1.67447E+00 2.45944E+00
 -1       260 3.36395E+00-3.69916E+00 2.33174E+00
 -1       261 1.81845E+00 4.65760E+00 1.98060E+02
 -1       262-4.32436E+00 2.50997E+00 2.19508E+01
 -1       263 4.08836E+00-2.87843E+00 2.23734E+01
 -1       264 4.05856E+00-2.92028E+00 1.91629E+01
 -1       265 1.85293E+00-4.64399E+00 1.98127E+02
 -1       266-4.09565E+00-2.86804E+00 2.17114E+01
 -1       267 3.25280E+00-3.79727E+00 6.98013E+00
 -1       268 4.20920E+00-2.69864E+00 4.62469E+00
 -1       269 4.14081E+00-2.80245E+00 1.95087E+02
 -1       270 3.14306E+00-3.88859E+00 1.93332E+02
 -1       271 4.49317E+00-2.19350E+00 1.92822E+02
 -1       272 2.18238E+00-4.49858E+00 1.95662E+02
 -1       273 4.62273E+00 1.90535E+00 1.92998E+02
 -1       274 3.19884E+00 3.84284E+00 1.92664E+02
 -1       275 4.33520E+00 2.49119E+00 1.95149E+02
 -1       276 2.06705E+00 4.55273E+00 1.95517E+02
 -1       277 4.15993E+00 2.77399E+00 4.82126E+00
 -1       278 3.18212E+00 3.85670E+00 7.52614E+00
 -1       279 4.61980E+00 1.91245E+00 7.01096E+00
 -1       280 2.24525E+00 4.46753E+00 4.78075E+00
 -1       281-4.18286E+00 2.73929E+00 1.93630E+02
 -1       282-4.51763E+00 2.14267E+00 1.91206E+02
 -1       283-4.30149E+00 2.54895E+00 6.29945E+00
 -1       284-3.03016E+00 3.97720E+00 7.89509E+00
 -1       285-4.53951E+00 2.09591E+00 8.70978E+00
 -1       286 3.37099E+00-3.69275E+00 9.28272E+00
 -1       287-2.40111E+00 4.38574E+00 1.21963E+01
 -1       288-8.73542E-01 4.92310E+00 1.01818E+01
 -1       289-3.04395E+00 3.96666E+00 9.92324E+00
 -1       290-4.63280E+00 1.88074E+00 1.18056E+01
 -1       291 3.28598E+00 3.76860E+00 1.90073E+02
 -1       292 4.56164E+00 2.04729E+00 1.90967E+02
 -1       293 4.48069E+00 2.21887E+00 1.88695E+02
 -1       294 4.37117E+00 2.42752E+00 1.22648E+01
 -1       295 3.34432E+00 3.71692E+00 1.47164E+01
 -1       296 4.66449E+00 1.80071E+00 1.47870E+01
 -1       297 4.53757E+00 2.10011E+00 9.18886E+00
 -1       298 3.42943E+00 3.63855E+00 1.00791E+01
 -1       299-7.32789E-01-4.94601E+00 1.89593E+02
 -1       300 4.57389E-01 4.97904E+00 1.97364E+02
 -1       301-1.18093E+00 4.85854E+00 1.97951E+02
 -1       302 1.28819E+00-4.83121E+00 8.83066E+00
 -1       303 3.33704E+00-3.72346E+00 1.91115E+02
 -1       304 4.52740E-01-4.97946E+00 1.97190E+02
 -1       305-8.03971E-01 4.93494E+00 2.12980E+00
 -1       306 1.33253E+00 4.81917E+00 2.43618E+00
 -1       307 1.18627E+00-4.85724E+00 1.11666E+01
 -1       308 2.88558E+00-4.08331E+00 1.09424E+01
 -1       309-4.57238E+00-2.02319E+00 2.68499E+00
 -1       310-3.32621E+00-3.73314E+00 4.17871E+00
 -1       311-4.66484E+00-1.79979E+00 5.97535E+00
 -1       312-4.83377E+00-1.27856E+00 1.94286E+02
 -1       313-4.61264E+00-1.92966E+00 1.97456E+02
 -1       314-4.66392E+00 1.80218E+00 1.67708E+02
 -1       315-4.31253E+00 2.53023E+00 1.65193E+02
 -1       316-4.99255E+00-2.72874E-01 1.66111E+02
 -1       317-4.73265E+00 1.61307E+00 4.24345E+00
 -1       318-4.99829E+00-1.30772E-01 3.53571E+00
 -1       319-4.96234E+00 6.12559E-01 6.28708E+00
 -1       320-4.94273E+00-7.54630E-01 1.67975E+02
 -1       321-4.69569E+00 1.71769E+00 1.33965E+02
 -1       322-4.20327E+00 2.70786E+00 1.31496E+02
 -1       323-4.99986E+00-3.71280E-02 1.32488E+02
 -1       324-4.95975E+00-6.33161E-01 1.34589E+02
 -1       325-4.68155E+00 1.75587E+00 1.15804E+02
 -1       326-4.32837E+00 2.50304E+00 1.13235E+02
 -1       327-4.99911E+00-9.42073E-02 1.14325E+02
 -1       328-6.48648E-01 4.95775E+00 4.80474E+00
 -1       329-4.33590E+00 2.48997E+00 8.44819E+01
 -1       330-6.30795E-01 4.96005E+00 1.95250E+02
 -1       331-4.41376E+00 2.34919E+00 1.07853E+02
 -1       332-4.24239E+00 2.64615E+00 1.05393E+02
 -1       333-4.99984E+00-3.98457E-02 1.06503E+02
 -1       334-4.19066E+00-2.72733E+00 1.49100E+02
 -1       335-4.16265E+00-2.76990E+00 1.51963E+02
 -1       336-4.98029E+00-4.43546E-01 1.50818E+02
 -1       337-9.96403E-02-4.99901E+00 6.64003E+00
 -1       338-1.62846E+00-4.72738E+00 5.23760E+00
 -1       339-1.69176E+00-4.70510E+00 7.98147E+00
 -1       340 2.13080E+00-4.52324E+00 1.29093E+01
 -1       341-4.73820E+00-1.59672E+00 1.89075E+02
 -1       342-3.81196E+00-3.23557E+00 1.86988E+02
 -1       343-3.24925E+00-3.80031E+00 1.89091E+02
 -1       344-4.17764E+00 2.74724E+00 7.38574E+01
 -1       345-4.33890E+00 2.48474E+00 7.15398E+01
 -1       346-4.99983E+00 4.15979E-02 7.27950E+01
 -1       347-4.42301E+00-2.33174E+00 1.36351E+02
 -1       348-4.38943E+00-2.39435E+00 1.39178E+02
 -1       349-4.98223E+00-4.21225E-01 1.38270E+02
 -1       350-4.56740E+00 2.03441E+00 6.14099E+01
 -1       351-4.21350E+00 2.69191E+00 5.85984E+01
 -1       352-4.99182E+00-2.85957E-01 5.92876E+01
 -1       353 4.57368E+00-2.02026E+00 1.90223E+02
 -1       354-9.88583E-01-4.90130E+00 1.01860E+01
 -1       355 4.44300E+00 2.29341E+00 1.86638E+02
 -1       356 2.54815E+00 4.30197E+00 1.88045E+02
 -1       357 1.33337E+00 4.81893E+00 9.60620E+00
 -1       358-9.30023E-01 4.91274E+00 7.83456E+00
 -1       359 1.33506E+00 4.81847E+00 1.90584E+02
 -1       360-4.92741E-01 4.97566E+00 1.88110E+02
 -1       361-4.98127E+00-4.32387E-01 6.17464E+01
 -1       362 3.24765E+00 3.80168E+00 1.86244E+02
 -1       363 1.16895E+00 4.86144E+00 6.85988E+00
 -1       364 1.22840E+00 4.84676E+00 1.93161E+02
 -1       365 1.49516E+00-4.77121E+00 1.93904E+02
 -1       366-3.48304E+00 3.58726E+00 1.87397E+02
 -1       367-4.82209E+00 1.32192E+00 1.88901E+02
 -1       368-4.08131E+00 2.88841E+00 5.30673E+01
 -1       369-4.33976E+00 2.48325E+00 5.07576E+01
 -1       370-4.99983E+00 4.12393E-02 5.20066E+01
 -1       371-4.46459E+00-2.25110E+00 6.60803E+01
 -1       372-4.43725E+00-2.30453E+00 6.86319E+01
 -1       373-4.99962E+00 6.12666E-02 6.76161E+01
 -1       374-4.45912E+00 2.26191E+00 3.26225E+01
 -1       375-4.37041E+00 2.42889E+00 3.00653E+01
 -1       376-4.98828E+00 3.42192E-01 3.15637E+01
 -1       377-4.95967E+00 6.33754E-01 1.36422E+02
 -1       378-4.46418E+00 2.25191E+00 1.57163E+02
 -1       379-4.34003E+00 2.48277E+00 1.54588E+02
 -1       380-4.99988E+00-3.41323E-02 1.55849E+02
 -1       381-3.16726E+00-3.86891E+00 2.15203E+00
 -1       382-4.43222E+00-2.31419E+00 3.22034E+01
 -1       383-4.98001E+00-4.46679E-01 2.97155E+01
 -1       384-4.03873E+00-2.94766E+00 2.97831E+01
 -1       385 1.51537E+00-4.76484E+00 6.32958E+00
 -1       386-4.88348E+00 1.07314E+00 1.93270E+02
 -1       387-3.71477E+00-3.34671E+00 1.93417E+02
 -1       388-4.46659E+00 2.24712E+00 1.41664E+02
 -1       389-4.44160E+00 2.29612E+00 1.38810E+02
 -1       390-4.99373E+00-2.50328E-01 1.40471E+02
 -1       391-3.39903E+00-3.66696E+00 6.45890E+00
 -1       392-4.99126E+00-2.95574E-01 4.68682E+01
 -1       393-4.99655E+00 1.85658E-01 4.41623E+01
 -1       394-4.28428E+00-2.57779E+00 4.52771E+01
 -1       395-4.16265E+00-2.76990E+00 4.80510E+01
 -1       396-4.99067E+00 3.05228E-01 3.89000E+01
 -1       397-4.99458E+00 2.32798E-01 4.14807E+01
 -1       398-4.29200E+00 2.56491E+00 4.02668E+01
 -1       399-4.36589E+00-2.43701E+00 3.99577E+01
 -1       400-4.22533E+00 2.67331E+00 7.94053E+01
 -1       401-4.99708E+00-1.70779E-01 1.97089E+02
 -1       402-2.55997E+00-4.29494E+00 7.05992E+01
 -1       403-4.44011E+00-2.29901E+00 7.12454E+01
 -1       404-4.23482E+00-2.65824E+00 3.49534E+01
 -1       405-4.99932E+00-8.27045E-02 3.36638E+01
 -1       406-2.66794E+00-4.22873E+00 6.80001E+01
 -1       407-4.55371E+00-2.06488E+00 1.56942E+02
 -1       408-4.22772E+00-2.66953E+00 1.59519E+02
 -1       409-4.99557E+00 2.10389E-01 1.58250E+02
 -1       410-2.56053E+00-4.29461E+00 4.98208E+01
 -1       411-4.44086E+00-2.29755E+00 5.04648E+01
 -1       412-4.19373E+00-2.72261E+00 1.41564E+02
 -1       413-4.23208E+00-2.66260E+00 1.44049E+02
 -1       414-4.99093E+00-3.00950E-01 1.42703E+02
 -1       415-2.38485E+00-4.39460E+00 4.73238E+01
 -1       416-4.90273E+00 9.81439E-01 1.82193E+00
 -1       417-4.58690E+00-1.99006E+00 1.30933E+02
 -1       418-4.28393E+00-2.57835E+00 1.33453E+02
 -1       419-4.95496E+00 6.69604E-01 1.30569E+02
 -1       420-4.32225E+00-2.51360E+00 1.23201E+02
 -1       421-4.28064E+00-2.58381E+00 1.25822E+02
 -1       422-4.99685E+00 1.77545E-01 1.24305E+02
 -1       423-4.20578E+00 2.70397E+00 8.96008E+01
 -1       424-4.42322E+00 2.33133E+00 8.71003E+01
 -1       425-4.96240E+00 6.12063E-01 8.88858E+01
 -1       426-4.41140E+00-2.35363E+00 1.12897E+02
 -1       427-4.25511E+00-2.62565E+00 1.15380E+02
 -1       428-4.99327E+00-2.59298E-01 8.75725E+01
 -1       429-4.38986E+00-2.39356E+00 1.05125E+02
 -1       430-4.30101E+00-2.54977E+00 1.07696E+02
 -1       431-4.42502E+00 2.32791E+00 4.55415E+01
 -1       432-4.50726E+00-2.16440E+00 9.71690E+01
 -1       433-4.33523E+00-2.49114E+00 9.97060E+01
 -1       434-4.99940E+00 7.74919E-02 9.83639E+01
 -1       435-4.57058E+00-2.02727E+00 8.63038E+01
 -1       436-4.47277E+00-2.23479E+00 8.91803E+01
 -1       437-4.21962E+00-2.68232E+00 7.38735E+01
 -1       438-4.41792E+00 2.34136E+00 1.70338E+02
 -1       439-4.99475E+00 2.28966E-01 1.69331E+02
 -1       440-4.12392E+00-2.82723E+00 5.85243E+01
 -1       441-4.30921E+00-2.53588E+00 6.08823E+01
 -1       442-4.22150E+00-2.67935E+00 5.30870E+01
 -1       443-4.40652E+00-2.36274E+00 1.62137E+02
 -1       444-4.99680E+00 1.78852E-01 1.60996E+02
 -1       445-4.28191E+00-2.58171E+00 1.64949E+02
 -1       446-4.15874E+00-2.77576E+00 1.67317E+02
 -1       447-2.57893E+00-4.28359E+00 1.12398E+02
 -1       448-2.46407E+00-4.35067E+00 1.14758E+02
 -1       449-4.62278E+00 1.90524E+00 1.52102E+02
 -1       450-4.38889E+00 2.39534E+00 1.49441E+02
 -1       451-4.39221E+00 2.38924E+00 1.46880E+02
 -1       452-4.99966E+00 5.83718E-02 1.47984E+02
 -1       453-4.51221E+00-2.15405E+00 1.46596E+02
 -1       454-4.55120E+00 2.07042E+00 6.90075E+01
 -1       455-4.27780E+00 2.58852E+00 6.62132E+01
 -1       456-4.15273E+00 2.78474E+00 1.10474E+02
 -1       457-4.99940E+00-7.75834E-02 1.08999E+02
 -1       458-4.57361E+00-2.02042E+00 6.33413E+01
 -1       459-4.98256E+00 4.17228E-01 6.42179E+01
 -1       460-3.91293E+00-3.11271E+00 8.65647E+00
 -1       461-4.97514E+00 4.97962E-01 1.72845E+02
 -1       462-4.60105E+00 1.95711E+00 4.82304E+01
 -1       463-4.12195E+00 2.83011E+00 1.72964E+02
 -1       464-4.64891E+00-1.84054E+00 4.26140E+01
 -1       465-4.99980E+00-4.49879E-02 1.63857E+02
 -1       466-4.54009E+00 2.09466E+00 4.29701E+01
 -1       467-4.39506E+00 2.38399E+00 1.62510E+02
 -1       468-4.57276E+00-2.02234E+00 3.74975E+01
 -1       469-4.99763E+00-1.53921E-01 1.53405E+02
 -1       470-3.48248E+00 3.58780E+00 1.82936E+02
 -1       471-4.87022E+00 1.13180E+00 1.82170E+02
 -1       472-4.22087E+00 2.68035E+00 1.84818E+02
 -1       473-4.99840E+00-1.26366E-01 1.84481E+02
 -1       474 9.42066E-01 4.91045E+00 1.85702E+02
 -1       475-2.77911E+00-4.15651E+00 1.83267E+02
 -1       476-2.62208E+00-4.25731E+00 1.85288E+02
 -1       477-4.30602E+00-2.54129E+00 1.85069E+02
 -1       478-4.60415E+00-1.94982E+00 1.83008E+02
 -1       479-1.54677E+00-4.75473E+00 1.87066E+02
 -1       480-2.68348E+00-4.21888E+00 1.90584E+02
 -1       481-4.16906E+00-2.76024E+00 1.91327E+02
 -1       482-4.80184E+00-1.39366E+00 1.74662E+02
 -1       483-3.80109E+00-3.24834E+00 1.78612E+02
 -1       484-4.05244E+00-2.92877E+00 1.76476E+02
 -1       485-2.23596E+00-4.47219E+00 1.76624E+02
 -1       486-2.74071E+00-4.18193E+00 9.75709E+00
 -1       487-3.30839E+00-3.74894E+00 1.14089E+01
 -1       488-4.97890E+00-4.58857E-01 1.77228E+02
 -1       489-2.76671E+00 4.16477E+00 3.29202E+01
 -1       490-3.89954E+00 3.12947E+00 3.40522E+01
 -1       491-2.21805E+00-4.48110E+00 1.80773E+02
 -1       492-1.74318E+00-4.68629E+00 1.78518E+02
 -1       493 5.31402E-01-4.97168E+00 1.79186E+02
 -1       494 5.53619E-01-4.96926E+00 1.81011E+02
 -1       495 2.79732E+00-4.14428E+00 1.80065E+02
 -1       496-4.15518E+00-2.78110E+00 1.10304E+02
 -1       497-5.00000E+00 3.10109E-03 1.11919E+02
 -1       498-2.97916E+00-4.01555E+00 1.74031E+02
 -1       499-1.20457E-01-4.99855E+00 1.74774E+02
 -1       500-4.91906E+00-8.96015E-01 1.86884E+02
 -1       501-4.72359E+00 1.63941E+00 1.86748E+02
 -1       502 2.55585E+00-4.29740E+00 1.84842E+02
 -1       503-1.33489E-01-4.99822E+00 1.84765E+02
 -1       504-4.99509E+00-2.21438E-01 1.91235E+02
 -1       505-4.47175E+00-2.23683E+00 2.41992E+01
 -1       506-2.57171E+00 4.28792E+00 1.08380E+02
 -1       507-2.45256E+00 4.35717E+00 1.06020E+02
 -1       508-4.61129E+00-1.93286E+00 1.80796E+02
 -1       509 4.65720E+00-1.81948E+00 1.87937E+02
 -1       510-4.97232E+00 5.25385E-01 1.79600E+02
 -1       511-3.51539E+00 3.55556E+00 1.75275E+02
 -1       512-4.77325E+00 1.48866E+00 1.75474E+02
 -1       513-4.39204E+00 2.38957E+00 3.77857E+01
 -1       514-4.95400E+00-6.76699E-01 8.81111E+00
 -1       515-1.37865E+00-4.80618E+00 1.52663E+01
 -1       516-2.59333E+00-4.27488E+00 1.68761E+01
 -1       517-3.68339E+00-3.38122E+00 1.50957E+01
 -1       518-2.89029E-01-4.99164E+00 1.69598E+01
 -1       519-3.89632E+00 3.13348E+00 1.69480E+01
 -1       520-4.09200E+00 2.87324E+00 1.45428E+01
 -1       521-4.95765E+00 6.49410E-01 1.66311E+01
 -1       522-4.90889E+00 9.50141E-01 1.42723E+01
 -1       523-4.89306E+00-1.02858E+00 1.50402E+01
 -1       524-4.45618E+00-2.26770E+00 1.68043E+01
 -1       525 2.53679E+00 4.30867E+00 1.69415E+01
 -1       526 6.87115E-01 4.95256E+00 1.56398E+01
 -1       527 1.03154E+00 4.89244E+00 1.85094E+01
 -1       528-1.55195E+00 4.75305E+00 1.73043E+01
 -1       529-1.77814E+00 4.67314E+00 1.85226E+02
 -1       530 4.19896E+00-2.71455E+00 1.83552E+02
 -1       531 1.93936E+00-4.60857E+00 1.82666E+02
 -1       532 1.46029E+00-4.78200E+00 1.85407E+01
 -1       533 1.61282E+00-4.73274E+00 1.54262E+01
 -1       534 3.29188E+00-3.76345E+00 1.70853E+01
 -1       535-2.61634E+00-4.26084E+00 1.34304E+01
 -1       536-2.08311E+00 4.54540E+00 1.49643E+01
 -1       537-2.56533E+00 4.29174E+00 1.97613E+01
 -1       538-4.18219E+00-2.74031E+00 1.28421E+02
 -1       539-4.98335E+00-4.07745E-01 1.29108E+02
 -1       540 4.39204E+00 2.38956E+00 1.69908E+01
 -1       541 3.96424E-01 4.98426E+00 1.83570E+02
 -1       542 3.05404E+00 3.95890E+00 1.83658E+02
 -1       543-4.87433E+00-1.11394E+00 1.83309E+01
 -1       544-3.64454E+00-3.42306E+00 1.91314E+01
 -1       545-1.56945E+00 4.74730E+00 1.81961E+02
 -1       546 2.49769E+00 4.33146E+00 1.75063E+02
 -1       547 2.98798E+00 4.00899E+00 1.77063E+02
 -1       548 4.42774E+00 2.32273E+00 1.75690E+02
 -1       549 4.61348E+00 1.92763E+00 1.77546E+02
 -1       550 3.33269E+00 3.72735E+00 1.90730E+01
 -1       551 2.25383E+00 4.46321E+00 2.05991E+01
 -1       552 4.07570E+00 2.89633E+00 2.20703E+01
 -1       553-5.78778E-02 4.99966E+00 2.10229E+01
 -1       554 1.10479E-01 4.99878E+00 1.80260E+02
 -1       555 1.45725E+00 4.78293E+00 1.81679E+02
 -1       556 2.12515E+00 4.52590E+00 1.79181E+02
 -1       557 3.99576E+00 3.00565E+00 1.81329E+02
 -1       558 4.23080E+00 2.66464E+00 1.79146E+02
 -1       559 4.32068E+00 2.51630E+00 1.84806E+02
 -1       560 1.12659E-02-4.99999E+00 2.04261E+01
 -1       561 2.20534E+00-4.48737E+00 2.10623E+01
 -1       562-3.69452E+00-3.36905E+00 1.82010E+02
 -1       563-4.89191E-01-4.97601E+00 1.82576E+02
 -1       564-2.43755E+00-4.36559E+00 2.89684E+01
 -1       565-2.06437E+00-4.55394E+00 2.64676E+01
 -1       566 1.19328E-01-4.99858E+00 2.81977E+01
 -1       567-4.14794E+00-2.79188E+00 2.68741E+01
 -1       568 5.85818E-02-4.99966E+00 2.57198E+01
 -1       569-2.72828E+00 4.19004E+00 1.68198E+02
 -1       570-2.28093E+00 4.44942E+00 1.71012E+02
 -1       571 1.23562E-01 4.99847E+00 1.69207E+02
 -1       572 5.85757E-02 4.99966E+00 1.71682E+02
 -1       573-2.58265E+00 4.28134E+00 2.51853E+01
 -1       574-2.45519E+00 4.35569E+00 2.81292E+01
 -1       575 1.44439E-01 4.99791E+00 2.63443E+01
 -1       576-4.39820E+00 2.37819E+00 2.72745E+01
 -1       577 5.87372E-02 4.99965E+00 2.88243E+01
 -1       578-2.57096E+00 4.28838E+00 1.60571E+02
 -1       579-2.31920E+00 4.42960E+00 1.63292E+02
 -1       580 1.28169E-01 4.99836E+00 1.61412E+02
 -1       581 5.87446E-02 4.99965E+00 1.63889E+02
 -1       582-2.60475E+00 4.26794E+00 1.50105E+02
 -1       583-2.84447E+00 4.11206E+00 1.52587E+02